<?xml version="1.0"?>
<VTKFile type="UnstructuredGrid"  version="0.1"  >
<UnstructuredGrid>
<Piece  NumberOfPoints="991" NumberOfCells="1835">
<Points>
<DataArray  type="Float64"  NumberOfComponents="3"  format="ascii">-22.5 22.5 0  -22.5 -22.5 0  34.5 -22.5 0  34.5 22.5 0  3.785640897740315 2.432883678550189 0  4.5 0 0  3.785640897740315 -2.432883678550188 0  1.869367558508487 -4.093343979095334 0  -0.6404167722297835 -4.454196488464197 0  -2.946873302753783 -3.400873084594162 0  -4.317718381265239 -1.267796505786432 0  -4.317718381265238 1.267796505786434 0  -2.946873302753783 3.400873084594162 0  -0.6404167722297825 4.454196488464198 0  1.869367558508489 4.093343979095333 0  12.61803398874989 1.902113032590307 0  14 0 0  12.61803398874989 -1.902113032590307 0  10.38196601125011 -1.175570504584946 0  10.38196601125011 1.175570504584946 0  6 -22.5 0  6 22.5 0  -22.5 0 0  34.5 0 0  20.25 22.5 0  20.25 -22.5 0  -8.25 22.5 0  -8.25 -22.5 0  34.5 11.25 0  34.5 -11.25 0  -22.5 -11.25 0  -22.5 11.25 0  22.04402171670038 10.12242750782048 0  22.96500656630894 -7.96654359028148 0  12.86314838256153 -13.34298735438148 0  9.10664241542462 12.13603422327688 0  -11.07594703264063 -11.42953290801146 0  -12.45174588517652 8.002251178019288 0  -1.125 -14.87716901589549 0  -1.125 14.87716901589549 0  -13.53652810848193 -2.464879966204747 0  27.375 -22.5 0  -15.375 22.5 0  25.14419933620431 1.212339324925362 0  27.375 22.5 0  -15.375 -22.5 0  13.125 22.5 0  16.22995148830714 15.3351463993779 0  27.31676103431052 -14.58186532172999 0  -8.835126210500242 14.81183100108958 0  20.03232581433138 -14.63476512758151 0  7.45891081409729 -8.608041955637226 0  -1.125 -22.5 0  13.125 -22.5 0  -1.125 22.5 0  -16.22112112123598 15.15462671011612 0  34.5 -5.625 0  6.19841438997673 -15.49825191487865 0  15.25226957176389 8.395919959613106 0  28.56962400850609 7.398564435682555 0  23.8125 16.697553273131 0  34.5 16.875 0  -16.85422668438527 -15.55559356677734 0  -16.80925953277942 3.164073515899626 0  -6.104313388333859 8.996278495874876 0  -16.73805951719108 -8.163634700886234 0  19.25649212007524 3.507332195847638 0  19.60974457259994 -2.714751081336916 0  15.50311483264342 -7.563364654856912 0  29.20147341509996 14.0625 0  28.97652559160534 -8.751005739369869 0  -4.865273656896835 -9.588181091577571 0  29.31307975729011 -2.90284232753023 0  -7.203466415323359 -16.33693054283169 0  -22.5 -16.875 0  34.5 5.625 0  34.5 -16.875 0  -22.5 16.875 0  -22.5 5.625 0  -22.5 -5.625 0  -8.498017724408779 -5.170904940710531 0  1.809893633689295 -9.884468440565449 0  3.117713529952548 10.24761356359728 0  11.04751847684271 17.34449971516589 0  7.532003550194144 6.688995368516231 0  4.790017317091109 16.48970512583545 0  23.70257852602883 -18.46881866109256 0  -17.35985899600832 9.985062711304664 0  -8.627044598069425 4.342353336339102 0  15.75335594155919 -17.84258995419277 0  -5.010083930321184 18.38706785247799 0  -12.21101158279018 -18.19629132021523 0  2.4375 -18.8953610989305 0  -12.3680511320954 18.4322070331631 0  9.5625 -22.5 0  10.87333239072138 -17.79912373998798 0  -9.193896768141148 -0.42283891778954 0  -18.45276737261891 -2.8125 0  30.07085285515415 2.525834548929681 0  24.60128363487953 -3.506891629308285 0  23.47321090735734 5.625317582047686 0  -1.572808387156091 10.20790350707527 0  -18.9375 22.5 0  -18.9375 -22.5 0  30.14454160692696 18.68308603544081 0  30.01680602975228 -18.52128763768622 0  -12.41865950585101 -7.216230927026232 0  -3.424193609949167 -18.68858450794774 0  11.23272770004326 -6.173862983531229 0  2.4375 22.5 0  -12.52174795620551 2.389343309859484 0  0.65625 18.68858450794774 0  19.10002003382249 -10.24573088726562 0  7.546138974709928 -4.229808455073004 0  16.6875 22.5 0  19.64120553968748 18.13137266188777 0  20.22412879826097 13.94134439355996 0  25.23970354605153 12.78829335498208 0  -13.7331414366093 11.89638004849333 0  30.66076051987146 -12.3820834678702 0  25.6325261060444 -10.95078759322966 0  11.72290491914431 6.046422203638739 0  19.75061614332257 -18.57819113469347 0  -18.70390267760857 18.4114300291521 0  12.64721350729521 13.78253580236701 0  14.63025645785464 18.89711031217679 0  -9.65083892585187 10.87986520298338 0  -4.977298122836181 14.51822190768696 0  19.48938758998619 -6.489344799081191 0  17.18832570229439 11.66163205081112 0  -19.31275750051221 13.12544310683156 0  -15.11222021924286 -11.88607755908503 0  -18.78062476931477 -11.27203701193718 0  -8.688581787245941 18.48881672984326 0  12.45797461113347 -9.665173598826021 0  2.659253436664578 -13.74272315177969 0  23.67608380687225 -14.82042974432755 0  16.40093806267045 -14.24860403478211 0  -17.15625 -19.24967560837955 0  7.628049260722825 19.04530050009277 0  11.83616776088872 9.701897671234928 0  4.129655876523747 -7.012424404313722 0  8.886947738714126 -12.42969004061312 0  20.12407011470797 7.036609278159387 0  -7.381511636396214 -12.49582094178578 0  2.4375 -22.5 0  -11.8125 -22.5 0  -4.6875 22.5 0  16.6875 -22.5 0  23.8125 -22.5 0  30.9375 -22.5 0  23.8125 22.5 0  -4.6875 -22.5 0  -11.8125 22.5 0  30.9375 22.5 0  9.5625 22.5 0  -3.143096025340578 7.00103665463005 0  30.73544649783681 10.55513183962881 0  25.50129144913929 9.226387472306239 0  26.97546901409017 4.239804537022625 0  15.94365436214589 -3.773085703757543 0  5.073302722655288 -11.18867529614213 0  15.4996819987262 4.514359319116307 0  7.361444887265195 -19.03489504234127 0  -13.42809052136389 -14.93381789488228 0  1.072405630535834 7.458744993686783 0  -15.84258036675907 6.674822328172665 0  26.19733785009954 -6.622501583453412 0  26.56756744627953 19.00088667467992 0  22.4611505256215 -0.8698388726832105 0  -9.2422952138248 -8.524575606533805 0  -22.5 -8.4375 0  15.79309283497908 -10.92732902395289 0  -22.5 8.4375 0  -19.31027033478956 7.03125 0  -22.5 -14.0625 0  7.329029197438016 3.090771096790438 0  -4.481468506351537 -14.2860777758826 0  -1.594530202804316 -11.24219215974365 0  -0.9666938236479994 -7.869387752815682 0  -12.87814823479267 15.12827557997362 0  -22.5 -19.6875 0  -9.166752973132017 7.606753949039755 0  22.2960574429605 -11.24882252925077 0  -15.83310240076721 -4.923355609849141 0  -15.09599042684167 0.3943091986200935 0  -19.09687423220563 0.5788862390861125 0  4.225277591776964 6.428312893646291 0  -5.14021295774462 -6.111877055336546 0  5.561596349285557 12.93793600638545 0  2.268992648988452 14.08235022004208 0  6.362397381261257 9.755320128090855 0  3.769203320524588 19.55569587706642 0  -10.31470491079833 -15.63061159898791 0  31.02934005779882 -5.935376698345056 0  34.5 -8.4375 0  -15.53863947832981 19.23375803290696 0  22.31954047870051 2.665624855373578 0  17.6032572117969 0.2924020516279313 0  8.087575654349761 15.68134970191401 0  26.85311100659796 -19.28705724215037 0  -19.67936047129321 -7.03125 0  -6.616922840969117 -19.60691906533101 0  31.82602944864366 7.485543816671306 0  -19.85173398171903 3.938745436396238 0  30.2804715052163 -15.44556910432346 0  -6.013332567998082 5.936255882632868 0  22.03125 20.02503886170154 0  26.55822617422471 15.48481697478358 0  34.5 14.0625 0  31.57715642984636 15.98415351093936 0  7.548512203290406 0.04976300401574139 0  34.5 -19.6875 0  31.32752111808433 -0.4168061929215336 0  34.5 -2.8125 0  27.78980870458417 11.18501567132881 0  -7.07883471182917 12.39688109292023 0  -4.306307958488151 11.35147564669547 0  21.85718439267356 -4.675628833346332 0  34.5 -14.0625 0  -0.4610656850924477 -17.87686905191775 0  26.72065372963883 -1.359865996113066 0  -10.03125 -20.16475627286557 0  -19.92540602021377 -18.28125 0  -19.81136109262753 -15.31667228252102 0  34.5 19.6875 0  9.159860328706184 -15.38086936900325 0  -10.60757747622257 -3.055055913027368 0  -7.04832484129694 -2.533409982234216 0  14.27168821685201 11.33874530615582 0  -2.130691023793517 17.6691125775722 0  34.5 8.4375 0  34.5 2.8125 0  -22.5 -2.8125 0  -22.5 14.0625 0  -22.5 19.6875 0  -22.5 2.8125 0  -11.48576930019614 5.183313428395968 0  12.05228240406668 19.93594130199909 0  31.79809479953501 -9.648397977467685 0  13.67244209950121 16.32675400128764 0  18.03347486378731 8.953845702854794 0  9.092566600402659 9.040477287974099 0  -2.90625 20.35069370952041 0  0.08610006030198902 12.40491141679016 0  -14.37536989642016 4.382367031412231 0  31.86028982491025 4.682997798835009 0  -14.22873836323042 -9.28392434487283 0  -20.06144044029306 9.648087426252781 0  13.32757890111661 -16.2226996761639 0  18.00905522373933 -16.39369775281124 0  14.90625 -20.43488171974163 0  -13.59375 -20.49463397122341 0  -14.76952458594092 -17.29250014025825 0  -10.9944577443602 13.20920339178093 0  -18.82161914566977 15.74693067703091 0  25.6228534678088 -16.63058290077481 0  21.67707296037863 -16.7340376050235 0  22.03125 -20.5314814526708 0  31.85073670754998 13.13204340503939 0  9.969593149868968 3.909101384084313 0  -6.162007782061149 3.240097471923738 0  -14.84958179947937 9.132821590980685 0  -16.72720078748245 12.55590351757881 0  13.346276297724 -4.498777012495726 0  20.21034573847942 0.9842836434557121 0  17.32421210999098 19.74765250039149 0  17.83817848698529 5.727260431880461 0  -6.900830754038325 16.57615371681871 0  -6.46875 20.57058985886573 0  28.25301540377425 -11.29274353772722 0  11.34375 -20.46349896088149 0  25.89667893856287 6.632079258995263 0  17.51274495959703 -19.98743199318749 0  31.90808548126281 -2.946410492542479 0  1.726962593734237 -16.28369102812632 0  1.463941421028248 -6.741899599658932 0  -6.624384066297481 0.04342340317986038 0  22.58437028754645 12.72301951914271 0  28.79301179856074 0.2404732968494396 0  9.794257207589609 -9.913023675346823 0  19.63080532389263 10.93818782375953 0  -10.03125 20.66519258751666 0  10.13432246151478 -3.789272539374681 0  4.930369867475385 -17.87480403591346 0  0.65625 -20.69768054946525 0  4.21875 -20.69768054946525 0  -10.73773789178835 16.4891585159338 0  -12.63748159690139 -0.1196444913804462 0  -13.49207898641438 20.65755216785484 0  10.45289424985073 14.93725382944435 0  0.3270050776142581 -12.84180037136166
[...]
<PointData  Scalars="f_34"> 
<DataArray  type="Float64"  Name="f_34"  format="ascii">3.4263209183690302e-01  3.4245952855517364e-01  -1.0004241385266219e-01  -9.9673116176520152e-02  5.0000000000000000e-01  5.0000000000000000e-01  4.9999999999999994e-01  5.0000000000000000e-01  5.0000000000000000e-01  5.0000000000000000e-01  5.0000000000000000e-01  5.0000000000000000e-01  5.0000000000000000e-01  5.0000000000000000e-01  5.0000000000000000e-01  -5.0000000000000000e-01  -5.0000000000000000e-01  -5.0000000000000000e-01  -5.0000000000000000e-01  -4.9999999999999994e-01  1.3260125176405907e-01  1.3305943933372416e-01  3.7650683775474142e-01  -1.4313472929871232e-01  -5.2411291468537638e-02  -5.2878666503402720e-02  3.0381321299690134e-01  3.0355152899199217e-01  -1.2020014245393176e-01  -1.2052565882536730e-01  3.5882327788962232e-01  3.5893808234748087e-01  -1.2192721090226873e-01  -1.4107328819233214e-01  -9.7544410719837202e-03  5.9464069045552966e-02  3.5408999637762995e-01  3.7346992799200657e-01  2.6341897629313732e-01  2.6401654223562648e-01  3.9121155205889169e-01  -8.9795718201679919e-02  3.3434720882902025e-01  -1.6742825323513730e-01  -8.9312731341600560e-02  3.3415091179629164e-01  2.3599162437704217e-02  -3.8540535118848293e-02  -1.0499379287787690e-01  3.2825462385598947e-01  -7.7075507812971802e-02  9.1727243831308078e-02  2.3677760095215833e-01  2.3092821977456681e-02  2.3727002161700039e-01  3.4645919152414106e-01  -1.3628764500227189e-01  1.3196489622138216e-01  -1.2244111463399894e-01  -1.3513049061960139e-01  -8.5995095729939547e-02  -1.0548861973670348e-01  3.4612799310547976e-01  3.8023289020877787e-01  3.7018271237838718e-01  3.6805526076878881e-01  -2.1213286359238917e-01  -2.1721954894505355e-01  -1.4606327912584915e-01  -1.0922866646220969e-01  -1.2967546341921249e-01  3.5894300938087159e-01  -1.4721333459408131e-01  3.1126936383814019e-01  3.4714030297701748e-01  -1.3610876255084198e-01  -1.0581694621537799e-01  3.4730865132972100e-01  3.7123488963226131e-01  3.7112890624181460e-01  4.0542888601633065e-01  2.7421969496847626e-01  2.3588269044052482e-01  4.5370049092172245e-02  7.8462632150493511e-02  1.5810280096874896e-01  -8.0260670588217009e-02  3.6237155833000007e-01  4.1108965306161743e-01  -1.9576639331781994e-02  2.8590303084908320e-01  3.2910948340007895e-01  1.9207965396121443e-01  3.2927538187271493e-01  7.5509934685722507e-02  4.9127347641118986e-02  4.2222746831106284e-01  3.7791255358792908e-01  -1.4598357361176192e-01  -1.6433831220926409e-01  -1.5749502650777913e-01  3.2632141295003936e-01  3.4063057309194805e-01  3.4044968072939907e-01  -9.9027584522918530e-02  -9.9496420234422470e-02  3.7739302260007146e-01  2.6926229899086929e-01  -1.1923548045457423e-01  1.8860147038447519e-01  3.9573610656125180e-01  2.1932872309063109e-01  -1.1380828735339754e-01  5.4565011443043057e-02  -1.9713169153466038e-02  -5.5428983223836228e-02  -8.2765178361010661e-02  -1.0860994789414732e-01  3.5451342970858435e-01  -1.1635335787797316e-01  -1.1958009217854665e-01  -1.3800691960629244e-01  -5.5236609187742494e-02  3.4314427662167885e-01  -1.5336013189092956e-03  -1.3036083716725965e-03  3.5599029088288142e-01  3.0703472320684139e-01  -1.6696033463738191e-01  -8.3982482860818081e-02  3.5403052213664060e-01  3.5551292973291793e-01  3.5857311559067589e-01  3.1229571421088864e-01  -5.3329333637486431e-02  2.1050090381027034e-01  -9.4067821670257054e-02  -4.9613909444133561e-02  3.3985207739918044e-01  1.0601214381847239e-01  -3.7233585779275172e-02  2.5689904942138575e-01  6.5920927816663089e-02  -1.5666619252764527e-01  3.3721452141036229e-01  1.8826707320144462e-01  3.2249114113323124e-01  2.7582060272204301e-01  -2.0223679542513709e-02  -7.5523284974264582e-02  -9.7529171956927702e-02  -7.4987873720719647e-02  2.7542960909176201e-01  3.2266095161761543e-01  -9.7164170475429606e-02  7.6032584866431510e-02  4.0245458209151502e-01  -1.2226349354262969e-01  -1.2913413194575218e-01  -1.5051776435082731e-01  -2.6190174753087592e-01  1.6979130132505013e-01  -2.4068060969789035e-01  1.1010702452705043e-01  3.4209869043631697e-01  3.5062531371053757e-01  3.7371472813851608e-01  -1.4288285045409035e-01  -9.0031285836988939e-02  -1.8980258338781797e-01  3.7406012640034197e-01  3.6542433172858013e-01  -8.1148044023137841e-02  3.6550393141084159e-01  3.6941325904345540e-01  3.5241855380327358e-01  5.6068309921518587e-02  3.0421521143826175e-01  3.0953949076892351e-01  3.7055170945855692e-01  3.4045310339045626e-01  3.4367451591865350e-01  3.8196698894498682e-01  -1.1287133718516205e-01  3.7858955467292488e-01  3.8749606576072948e-01  3.7861415449273700e-01  2.6737006361255244e-01  4.1458498248966574e-01  1.5072644207429664e-01  2.1592523176782041e-01  1.3583954250860539e-01  1.7032906156317346e-01  3.3033578417854009e-01  -1.3729537805235281e-01  -1.2890171871821754e-01  3.3692037965553395e-01  -1.8479784428041682e-01  -2.8257029976882625e-01  9.4523630940521200e-02  -9.0899462778011628e-02  3.6919886163675564e-01  2.9536832207028380e-01  -1.3203062652621922e-01  3.7489463555394087e-01  -1.0667888628252960e-01  4.1251153053691464e-01  -6.7143692640655006e-02  -9.9709881873150968e-02  -1.1212456016108586e-01  -1.0618247207718094e-01  8.6560610429049312e-04  -1.0160378127188285e-01  -1.4559662701394033e-01  -1.4138034812041120e-01  -1.1930564179688362e-01  3.3679416582022359e-01  3.3271368940876506e-01  -1.7413251996318427e-01  -1.1246943749095610e-01  2.3728222414914801e-01  -1.5856047593135097e-01  3.1566074124348537e-01  3.4428463471751297e-01  3.4916419857106396e-01  -1.0123521274805918e-01  7.2322982580933504e-02  4.0452748685187523e-01  4.4040753500505159e-01  -5.5594929021770226e-02  2.5947902069712431e-01  -1.2867516010176888e-01  -1.4123183909229881e-01  3.7508796314301790e-01  3.5254658884303819e-01  3.4388782877031804e-01  3.7511437112998425e-01  3.9046407411200329e-01  3.6384257043044495e-02  -1.2553952239823196e-01  4.8225209287441987e-04  -1.2780914448382816e-01  3.3660578117747808e-02  2.5997771021706539e-01  2.7036547671965622e-01  3.8371791954879392e-01  -1.3940074543379710e-01  3.6571754102646187e-01  3.6286616381714326e-01  4.3175150212888917e-03  -5.0218675662198002e-02  -1.7550908472423017e-03  3.3004265985895420e-01  3.3844758623582855e-01  3.4429266399762820e-01  3.4780508716007535e-01  -9.3475885100937545e-02  -7.5607768826256180e-02  -6.6742986922577061e-02  -1.1415643074722140e-01  -1.6882120493418587e-01  4.4515021692974294e-01  3.6602178273336144e-01  3.5432996905882397e-01  -2.4843858901022869e-01  -2.1988038033065280e-01  -2.9562443623486478e-02  -1.8781246029597598e-01  3.0835919406052781e-01  2.9261039865909033e-01  -1.1930502000907697e-01  4.7246660343253505e-02  -1.4326890557179919e-01  -3.1581397684707149e-02  -1.4268660159290281e-01  2.1233981827585552e-01  3.6600073549481571e-01  4.5505882267195474e-01  -1.0230461844622064e-01  -1.5135992029596845e-01  2.0728319517756277e-02  -1.0735735474216399e-01  3.1528883738324232e-01  -1.9097517753912036e-01  1.5259697056804594e-01  2.1500264115692141e-01  1.6156359666991502e-01  3.2875905323235721e-01  3.9792177286079344e-01  3.2974960603605163e-01  4.6052608977138171e-02  2.6112101185874703e-01  3.8362181249683275e-01  3.7356707013045054e-01  -1.4224539159514438e-01  3.3891341387860818e-01  3.8868277316768590e-01  -1.3925854885962829e-01  2.0284594628238212e-01  -1.5043654306209422e-01  -8.2270958246998122e-02  1.6916961664201913e-02  -1.0123742878925977e-01  3.7687728598289061e-01  4.1293234215668712e-01  4.2921778435316099e-01  -9.8503348501990856e-02  -9.4370900724728646e-02  -1.0266117866084351e-01  3.1205809248335031e-01  3.8185904276885296e-01  -3.4823301183003313e-01  -1.5443298982479792e-01  2.9897900422995988e-01  -1.3914356683307874e-01  -1.7733371619898852e-01  -1.6418995019811411e-01  -1.0242528081609271e-01  -9.3535229694111280e-02  3.3807525361610458e-01  3.2405114453449557e-01  3.5226725497020372e-01  2.9765221273243775e-01  3.6224488771056734e-01  -7.9828226716097170e-02  3.5469254360393127e-01  3.7470523666004790e-01  8.1008587654013749e-03  3.3038674191320450e-01  -9.9442947830251552e-02  2.5314778081258010e-01  2.4420940811116060e-01  -2.8570009264095333e-02  3.5872983410928239e-01  1.7507586556317328e-01  3.4205377789795366e-01  3.4264473065109680e-01  -9.9812530725107401e-02  3.4195823683256804e-01  2.9135315222165259e-01  -1.4343545228959403e-01  -7.5202403267606091e-02  7.2549597318342568e-02  2.1811523404421088e-01  3.6208423884253416e-01  -1.2267271961918313e-01  -5.0660264249471100e-03  -1.2223154035144199e-01  -1.2925818450791521e-01  -1.8979525119959845e-01  -2.6517353802685356e-01  -1.0843786291306311e-01  1.2547009310566901e-01  2.6674918139706227e-01  -3.7608023626884833e-02  -8.3549403538819483e-02  -8.1934460207313001e-02  3.8691180266857683e-01  3.6757263239138749e-01  3.7414790129498110e-01  3.4228715299586132e-01  -5.8284123577152763e-02  -6.6811504626819535e-02  -4.8135683255853941e-02  1.3965646849394342e-01  3.7403828984602339e-01  -1.5249570915859043e-01  -2.7235617159563535e-01  3.4019767228381359e-01  -1.3056829636065900e-01  -1.0765008168109687e-01  3.4193108178108550e-01  -1.2564624666518365e-01  3.2802318177759288e-01  -1.7134285099590035e-01  2.2338086179243735e-01  -8.6325790212506845e-02  -1.3174562843921150e-01  3.4286106370740810e-01  3.5272396186035093e-01  3.4705496941140938e-02  2.8135774310994632e-01  -3.6854279219659297e-01  3.6492874837772354e-01  4.0811769884658594e-01  -2.6854480586245688e-01  -1.7017670652741868e-01  -3.0186022745415739e-02  7.5127156186278896e-02  2.3427221546366625e-01  2.3951359792489879e-01  1.9874460405008679e-01  3.6112784801931691e-01  4.5057748226294286e-01  -1.1401758759579377e-01  2.2755084222615454e-01  -1.1797804562989707e-01  -1.0988390553488431e-01  -9.7219044813514358e-02  -1.4803346100608751e-02  -9.6481346068043081e-02  6.5566633478156169e-04  2.9414359224729214e-01  3.4389126147968058e-01  2.5752522599245276e-01  1.0384175899340807e-01  3.4954903587102248e-01  3.7834414703597907e-01  3.4629896967600982e-01  -9.7404431490780236e-02  8.6309925270527776e-02  1.0214620682697671e-01  3.8692022676496296e-02  3.7657809627220895e-01  3.5047366693770393e-01  3.6206669029103572e-01  3.5752081079106773e-01  3.8757362478493973e-01  3.5086302039138256e-01  3.4320928997785982e-01  3.8662490103647706e-01  3.5682143891447976e-01  2.7710813063901868e-01  3.8194624508085534e-01  -1.0976852312756601e-01  -1.1210165293391249e-01  -1.2557337002028973e-01  -1.0012932290753951e-01  3.4124121359333209e-01  4.4749345393231449e-01  2.7383645847576454e-01  1.0428612769720741e-01  -2.0278727119089698e-01  -3.5698347317525213e-02  1.9708449451489438e-01  -5.2893476690166863e-02  -9.3075643310920705e-02  1.7362609418142083e-01  2.4000232630017954e-01  4.2935749146629054e-01  3.1701794343061257e-01  -1.3113843876864600e-01  2.3684903731845686e-01  -1.4272113827228119e-01  -1.2309544278757097e-01  2.0714334651049084e-02  1.2610630798550597e-02  3.5897572114769188e-01  3.7044527815224398e-01  1.3611069785338761e-01  1.6144966852780845e-01  1.4505791853633751e-01  3.1928179502589898e-01  2.9420080970880003e-01  -1.2658858356835939e-01  -9.1813293714169977e-02  -7.3497809990096780e-02  -1.9185713109223357e-01  3.4206773344443614e-01  3.4967499580469436e-01  -1.7807549142005438e-01  1.2283206863001893e-01  -1.1576405055122005e-01  8.0689487947378277e-02  -1.3712757705487369e-01  -2.0265860944792119e-01  -6.8556782829383961e-02  -9.7080774086776053e-02  -4.5708405370400315e-02  -5.1917879181244915e-02  -9.6521505298715157e-02  -1.0260789828790645e-01  -1.1989994934189910e-01  -1.3965285354320042e-01  -1.4975868263088454e-01  -1.5833735141827998e-01  3.3587008101648153e-01  -2.0312216939597574e-02  -2.1529418685046567e-01  -8.3106715785726523e-02  1.0215588630269910e-01  1.1094545971964397e-01  1.3372736015682513e-01  1.7525144860285863e-01  -9.0018281055797261e-02  -1.3866074671301437e-01  1.1821135063276582e-01  3.5618068101035799e-01  -1.1967417134213482e-01  2.3774482215382678e-01  -3.7946119290207567e-02  3.3975811843340409e-01  3.3654260401586666e-01  -1.1890535651400383e-01  -1.3090495528234763e-01  3.5883395073773799e-01  3.5073025562496407e-01  3.5565097914977600e-01  3.5751332055547697e-01  7.8292047614907188e-03  3.5904864812124937e-01  1.7320118441729379e-01  -6.3412795531589961e-02  3.1982366878077534e-01  3.2222912508410340e-01  2.9953450144066729e-01  2.3489910428665112e-01  2.8643499750551821e-01  -6.1567751410084984e-02  -1.0553172732583011e-02  -3.5306753949725606e-01  -6.4294953355616399e-02  1.3577464728147876e-02  2.7028854102356951e-02  -3.3954853478468536e-02  -6.4752901161741122e-02  -1.0053418390729436e-01  -8.5298267416171775e-02  3.6765106239580925e-01  3.4963263234739184e-01  1.7635688507161645e-01  -1.5652741765341976e-01  -8.6234674364537911e-02  3.7818804642375131e-01  -3.7310819670837728e-02  3.2346475530662933e-01  4.4971689280252031e-01  -1.5765691892711561e-01  2.1392432542510417e-01  4.1679382334750092e-01  -9.6138009820680187e-02  -9.1436434324336485e-02  -1.0446078872044119e-01  3.2445996531207422e-01  4.2000981448197883e-01  4.8898302196672939e-02  -1.3398271773167045e-01  1.9452735090793993e-01  3.9206222570785015e-01  2.7705182032198994e-01  4.0709942494859896e-01  3.9976185380493473e-01  3.9359739041918262e-01  3.0495020869431677e-01  2.1530762477911015e-02  -9.9382933218420663e-02  -9.3978040579202879e-02  3.2927162604634902e-01  1.8917670979250442e-01  2.1374693235056830e-01  3.1423095221474595e-01  4.8450482095675498e-02  2.9109635717190652e-01  -6.5326737556754153e-02  3.2902552048466027e-01  1.6165252213534552e-04  2.5786595828273229e-01  3.1395081281478443e-01  -6.4836354155689307e-02  2.9082813375163313e-01  1.6096819240765062e-01  -9.9006379524837068e-02  -3.7326523113599124e-02  3.3790069917715709e-01  1.3937367827055433e-01  -1.3701442793496529e-01  -1.8516315729228111e-01  3.6574152613611866e-01  -1.9466857274188337e-01  -1.5881124704245941e-01  -1.4248854385422419e-01  2.2542541772733685e-01  2.8881710147472006e-01  -8.1143728160948794e-02  1.3840143318750814e-01  8.9277163527300044e-02  -1.5291243890438735e-01  2.3957876581676831e-02  -1.4448232155360818e-01  -1.1020899687995757e-01  3.9579718896193944e-01  4.0493076074880507e-01  3.6850638899529342e-01  3.7161762627701367e-01  3.6662527816022944e-01  3.7102641534189063e-01  -1.4227553726852479e-01  3.4491028849991112e-01  3.3592206535880637e-01  -1.3086002954112752e-01  4.0012461254700898e-01  3.4852939036076130e-01  3.2330934919737425e-01  3.0621118571388495e-01  3.6775816887651680e-01  1.0859343272528237e-01  9.0825572902615295e-02  -3.0139645741161408e-01  3.7804344019550412e-01  3.7911011676355433e-01  -9.9555554049702816e-02  3.8130731865347822e-01  -1.5469178248924978e-01  3.8969922293378062e-01  2.8721766254487946e-01  4.1757249383530332e-01  3.2886907196193288e-01  3.2883096273101003e-01  1.8207801683689520e-01  2.3963659905401716e-01  5.0000000000000000e-01  3.5811597494722630e-01  -1.5297335692325106e-01  -1.7620497068214649e-01  3.8926967236833010e-01  -9.8129236497297809e-02  -6.9350792034098427e-02  -8.7202705859782056e-02  2.9993946227095331e-01  3.8470650574304505e-01  4.2522964987124168e-01  3.7322048207830349e-01  3.7812349337587986e-01  -2.3879682079007794e-01  3.8300222242554743e-01  3.4734485082641953e-01  3.3376742468007886e-01  3.4377374612840178e-01  4.4591119322716272e-01  3.3686580632373636e-01  3.4276818554301047e-01  -1.4362465226524773e-01  3.0252208314719431e-01  1.7601491559826538e-01  3.4772984218887953e-01  3.6785078450346720e-01  2.8355323221944395e-01  5.6932137124401053e-02  3.4448131220402473e-01  3.2335522952214513e-01  3.3472592786380767e-01  -3.0940901151584821e-01  1.9395797828593797e-01  -1.1189601097892030e-01  -8.2362561796858802e-02  1.2316798487282379e-01  -1.1603124262594106e-01  -8.7626839686919672e-02  3.4028702199671074e-01  3.3427203942718625e-01  3.6682173156027520e-01  -2.3142535997154964e-01  3.4193513170527923e-01  -5.0000000000000000e-01  8.2092442388704931e-02  -1.5558064832154775e-01  -1.3534740354779573e-01  3.8885187620953188e-01  -9.5971850090569868e-02  -8.6391488308152783e-02  5.0000000000000000e-01  -2.4367455520769496e-01  7.7203172518296156e-02  3.4299253681270259e-01  3.1653428970121622e-01  -1.5566603781024868e-01  -1.4108121850696625e-01  2.1913745724922301e-01  4.5166231702697834e-01  3.8052552089079761e-01  -3.2239880260249709e-01  -9.6898767155045876e-02  -1.3619110614607327e-01  2.5970508535240194e-01  -1.4721328037837336e-01  -1.4836130183412449e-01  -1.2633264008486608e-01  3.3712070461008103e-01  3.1983454485572499e-01  -1.9567805570457139e-01  -1.7172245260500482e-01  -1.7456415246712034e-01  -1.4060190385813731e-01  -4.5699834178766663e-02  7.3275200732593262e-02  3.7595485495133257e-01  3.6912344010914322e-01  3.6613316221031700e-01  3.7069105775486955e-01  -1.8020206427663713e-01  -1.0005178213018728e-01  -1.2476513892838394e-01  3.7345883864699636e-01  1.7567073281594570e-01  4.3442479457565725e-01  3.9313018598152838e-01  3.3342114741455287e-01  3.6581923121708926e-01  -1.8682883856156473e-02  2.9806352712512257e-01  -2.1979220533226010e-01  6.3711497712920367e-02  3.4689628464455891e-01  3.4962619514658932e-01  3.5840278516213703e-01  2.7776044468761851e-01  2.6803636075381276e-01  -2.2370305099033899e-01  -1.0199155025857641e-01  -1.0673470041506274e-01  -1.1121707128154021e-01  3.3601224566748200e-01  -1.9274267951160512e-01  2.1673764846967256e-01  2.5494532825472210e-01  -1.3214935784211528e-02  1.7771820618642928e-01  -1.4773901937068756e-01  4.1904681669615651e-01  -1.0542121406368740e-01  -1.0254362428376729e-01  -1.0955064833458790e-01  -1.5273177915378056e-01  -1.5258671002211180e-01  -1.5893651776815998e-01  -5.9360057204207603e-02  -7.0786379890049725e-02  -5.7979978555989312e-02  2.3744395926702944e-01  -5.8862847750806805e-03  3.5252212549068734e-01  -7.3387895810335294e-02  2.4984821222093556e-01  3.8901514544779736e-01  -1.2075217160934813e-01  4.2001425474358400e-01  1.1875542259592424e-01  4.2760127876554965e-01  4.6390105089955808e-01  5.0000000000000000e-01  -1.0527323053608272e-01  -1.0373320040469459e-01  -1.7518821884865016e-01  3.9025633207007199e-01  3.9986764413520381e-01  3.9877985307309272e-01  3.2266692924095158e-01  2.8512996978110794e-01  -1.6770206816189273e-01  -2.9603346010801321e-02  -1.2781022510222717e-01  2.6063055643423005e-01  3.5160616508240072e-01  3.4711879001135670e-01  3.7202556395032926e-01  3.4945047478475555e-01  1.0158593272051564e-01  3.3649853633876997e-01  6.1263361070335157e-02  -1.2759891750857802e-01  -1.6994127947835921e-01  1.2572846352952069e-01  3.8268298792461719e-01  3.7206208813108504e-01  -5.1879798223492236e-02  -6.2911979662043122e-02  -2.3886607667030510e-01  3.8590654174680722e-01  -1.4275870970906879e-01  -1.2832830479736954e-01  3.4164291549314157e-01  3.0900102718205080e-01  3.1955731888540778e-01  -2.7069176437220267e-02  3.4520344703316252e-01  3.4354490503884400e-01  -1.0008867226136420e-01  -1.1442421064884514e-01  -9.3289973142421781e-02  3.6049195339207318e-01  2.8096102659303823e-01  2.1395831769751800e-01  3.6224171575662745e-01  3.4000514498353607e-03  2.7272512699317589e-02  -1.3388334902756214e-02  -1.3845340526516015e-01  5.9238234807660467e-02  2.9981925948576760e-01  3.8121522365748256e-01  3.5121642382191870e-01  1.6676136029622743e-01  3.5408573925914566e-01  -1.1637984091920484e-01  2.0971461147835657e-01  3.3113491035417691e-01  3.7727770263380356e-01  3.4972772459869045e-01  3.7677067936593850e-01  3.7341102386278041e-01  1.4697724337459689e-01  -1.2569312462325757e-01  -1.0518494057856338e-01  3.7470674236548118e-01  -9.9622792254043482e-02  2.4023592367163343e-01  8.5916773265894517e-02  3.6842565851497572e-01  3.3083449642249263e-01  -1.3256756432466113e-01  -3.0183077208833270e-01  6.1995638127886867e-02  -7.4649907026707568e-02  1.9562740774393600e-01  -1.0988060980083092e-01  -9.9445946431889004e-02  